 &FCI NORB=   2,NELEC= 2,MS2=0,
  ORBSYM=1,1,
  ISYM=1,
 &END
 0.6728479469486289    1    1    1    1
 0.661977259479146    1    1    2    2
 0.1817715365773049    2    1    2    1
 0.661977259479146    2    2    1    1
 0.6958151510597648    2    2    2    2
 -1.247284505223615    1    1  0  0
 -0.4812729310959834    2    2  0  0
 0.70556961456  0  0  0  0
